Program Version,EnergyPlus-Windows-32 8.0.0.008, YMD=2013.09.24 15:24
1,5,Environment Title[],Latitude[deg],Longitude[deg],Time Zone[],Elevation[m]
2,6,Day of Simulation[],Month[],Day of Month[],DST Indicator[1=yes 0=no],Hour[],StartMinute[],EndMinute[],DayType
3,3,Cumulative Day of Simulation[],Month[],Day of Month[],DST Indicator[1=yes 0=no],DayType  ! When Daily Meters Requested
4,2,Cumulative Days of Simulation[],Month[]  ! When Monthly Meters Requested
5,1,Cumulative Days of Simulation[] ! When Run Period Meters Requested
7,1,Electricity:Facility [J] !TimeStep
481,1,Gas:Facility [J] !TimeStep
End of Data Dictionary
1,RUN PERIOD 1,  39.74,-105.18,  -7.00,1829.00
2,1, 1, 1, 0, 1, 0.00,15.00,Sunday         
7,105190830.048074
481,77505691.5273861
2,1, 1, 1, 0, 1,15.00,30.00,Sunday         
7,101892565.596946
481,69791541.9797388
2,1, 1, 1, 0, 1,30.00,45.00,Sunday         
7,98466470.3112301
481,65754770.2680779
2,1, 1, 1, 0, 1,45.00,60.00,Sunday         
7,94963455.0157362
481,61663870.717166
2,1, 1, 1, 0, 2, 0.00,15.00,Sunday         
7,67304045.285203
481,59839880.5141981
2,1, 1, 1, 0, 2,15.00,30.00,Sunday         
7,72356824.5722852
481,59787436.9266769
2,1, 1, 1, 0, 2,30.00,45.00,Sunday         
7,72953327.2902267
481,60199662.5809841
2,1, 1, 1, 0, 2,45.00,60.00,Sunday         
7,73572143.1457535
481,60719272.6193595
2,1, 1, 1, 0, 3, 0.00,15.00,Sunday         
7,73439454.977674
481,61944687.0931984
2,1, 1, 1, 0, 3,15.00,30.00,Sunday         
7,74512291.917045
481,63244657.3381323
2,1, 1, 1, 0, 3,30.00,45.00,Sunday         
7,75516753.7746003
481,64277625.8501542
2,1, 1, 1, 0, 3,45.00,60.00,Sunday         
7,76470564.1354805
481,65235159.6483746
2,1, 1, 1, 0, 4, 0.00,15.00,Sunday         
7,75147536.4855963
481,65427155.6141112
2,1, 1, 1, 0, 4,15.00,30.00,Sunday         
7,73804089.545904
481,63498798.7371547
2,1, 1, 1, 0, 4,30.00,45.00,Sunday         
7,72423703.4266664
481,61918474.0677518
2,1, 1, 1, 0, 4,45.00,60.00,Sunday         
7,71022892.8290508
481,60253093.2095503
2,1, 1, 1, 0, 5, 0.00,15.00,Sunday         
7,71221686.7470028
481,59595032.5160068
2,1, 1, 1, 0, 5,15.00,30.00,Sunday         
7,71420391.0032615
481,59786212.8223381
2,1, 1, 1, 0, 5,30.00,45.00,Sunday         
7,71658054.2293021
481,60167318.4268495
2,1, 1, 1, 0, 5,45.00,60.00,Sunday         
7,71842832.6053692
481,60504516.4770875
2,1, 1, 1, 0, 6, 0.00,15.00,Sunday         
7,91381566.3938741
481,63466779.3759065
2,1, 1, 1, 0, 6,15.00,30.00,Sunday         
7,89878802.9957668
481,62386188.4035559
2,1, 1, 1, 0, 6,30.00,45.00,Sunday         
7,87757225.9713941
481,61059583.278019
2,1, 1, 1, 0, 6,45.00,60.00,Sunday         
7,86210696.7409798
481,59691923.5714683
2,1, 1, 1, 0, 7, 0.00,15.00,Sunday         
7,97374875.2805041
481,70290277.5800075
2,1, 1, 1, 0, 7,15.00,30.00,Sunday         
7,97161997.1331789
481,72358524.0391894
2,1, 1, 1, 0, 7,30.00,45.00,Sunday         
7,97091623.4777846
481,72940981.1093137
2,1, 1, 1, 0, 7,45.00,60.00,Sunday         
7,97109342.4386477
481,72727046.7956454
2,1, 1, 1, 0, 8, 0.00,15.00,Sunday         
7,99688182.8485992
481,83553595.825096
2,1, 1, 1, 0, 8,15.00,30.00,Sunday         
7,98722138.7222914
481,83647679.8835807
2,1, 1, 1, 0, 8,30.00,45.00,Sunday         
7,97667110.6306276
481,81913345.6185197
2,1, 1, 1, 0, 8,45.00,60.00,Sunday         
7,96594000.4889754
481,78639549.6633913
2,1, 1, 1, 0, 9, 0.00,15.00,Sunday         
7,97838127.3868418
481,79993310.9425632
2,1, 1, 1, 0, 9,15.00,30.00,Sunday         
7,96554828.9651659
481,76063971.2683384
2,1, 1, 1, 0, 9,30.00,45.00,Sunday         
7,95944521.3497098
481,74194612.7910726
2,1, 1, 1, 0, 9,45.00,60.00,Sunday         
7,95584337.0526906
481,73905124.2592788
2,1, 1, 1, 0,10, 0.00,15.00,Sunday         
7,90571093.4980748
481,68923226.0364813
2,1, 1, 1, 0,10,15.00,30.00,Sunday         
7,90297957.9975049
481,69723265.7356875
2,1, 1, 1, 0,10,30.00,45.00,Sunday         
7,88054813.4116733
481,67776768.1599233
2,1, 1, 1, 0,10,45.00,60.00,Sunday         
7,85560894.5908985
481,63591039.6786747
2,1, 1, 1, 0,11, 0.00,15.00,Sunday         
7,93026520.5297839
481,71423472.573733
2,1, 1, 1, 0,11,15.00,30.00,Sunday         
7,92014024.1085877
481,68883912.2666795
2,1, 1, 1, 0,11,30.00,45.00,Sunday         
7,91841087.5417914
481,67857840.8586193
2,1, 1, 1, 0,11,45.00,60.00,Sunday         
7,92055751.9928538
481,68190031.3412207
2,1, 1, 1, 0,12, 0.00,15.00,Sunday         
7,91662697.3096579
481,69584915.4255013
2,1, 1, 1, 0,12,15.00,30.00,Sunday         
7,92643504.1850115
481,71448660.6565766
2,1, 1, 1, 0,12,30.00,45.00,Sunday         
7,93571063.5610644
481,73191896.6828011
2,1, 1, 1, 0,12,45.00,60.00,Sunday         
7,94618943.8401295
481,74907126.5089727
2,1, 1, 1, 0,13, 0.00,15.00,Sunday         
7,92164105.4844575
481,74175120.3025903
2,1, 1, 1, 0,13,15.00,30.00,Sunday         
7,90989544.033563
481,72292854.5243519
2,1, 1, 1, 0,13,30.00,45.00,Sunday         
7,89711291.1701949
481,70820192.1405489
2,1, 1, 1, 0,13,45.00,60.00,Sunday         
7,88260440.0639413
481,69390144.8313078
2,1, 1, 1, 0,14, 0.00,15.00,Sunday         
7,81821127.9900298
481,64149510.0055168
2,1, 1, 1, 0,14,15.00,30.00,Sunday         
7,82735158.8937219
481,65571157.4600413
2,1, 1, 1, 0,14,30.00,45.00,Sunday         
7,83502194.3343205
481,66933243.2298999
2,1, 1, 1, 0,14,45.00,60.00,Sunday         
7,84189394.4149871
481,68435900.3810162
2,1, 1, 1, 0,15, 0.00,15.00,Sunday         
7,86176150.8812445
481,64327364.1866345
2,1, 1, 1, 0,15,15.00,30.00,Sunday         
7,87087401.3260448
481,65807571.4680667
2,1, 1, 1, 0,15,30.00,45.00,Sunday         
7,87860261.5500817
481,67082889.3308933
2,1, 1, 1, 0,15,45.00,60.00,Sunday         
7,88597461.8073261
481,68184208.0043406
2,1, 1, 1, 0,16, 0.00,15.00,Sunday         
7,91788029.5212265
481,74259629.5665749
2,1, 1, 1, 0,16,15.00,30.00,Sunday         
7,91897450.6023763
481,74314313.2086725
2,1, 1, 1, 0,16,30.00,45.00,Sunday         
7,91665809.0484078
481,74075562.2401011
2,1, 1, 1, 0,16,45.00,60.00,Sunday         
7,91253868.8777332
481,73504431.9224909
2,1, 1, 1, 0,17, 0.00,15.00,Sunday         
7,98666423.6149583
481,84593081.9622343
2,1, 1, 1, 0,17,15.00,30.00,Sunday         
7,99272169.3043814
481,85025966.7567753
2,1, 1, 1, 0,17,30.00,45.00,Sunday         
7,100713547.806742
481,86919566.1971729
2,1, 1, 1, 0,17,45.00,60.00,Sunday         
7,101471536.441367
481,88890418.7727654
2,1, 1, 1, 0,18, 0.00,15.00,Sunday         
7,100032585.708355
481,92148119.1586708
2,1, 1, 1, 0,18,15.00,30.00,Sunday         
7,100720317.420384
481,94804671.0407798
2,1, 1, 1, 0,18,30.00,45.00,Sunday         
7,101423185.19221
481,96194221.8038055
2,1, 1, 1, 0,18,45.00,60.00,Sunday         
7,102132950.858001
481,97327836.7157044
2,1, 1, 1, 0,19, 0.00,15.00,Sunday         
7,102974511.962707
481,97868653.879382
2,1, 1, 1, 0,19,15.00,30.00,Sunday         
7,103578529.248417
481,98336960.8738787
2,1, 1, 1, 0,19,30.00,45.00,Sunday         
7,104203141.788874
481,99190836.5655488
2,1, 1, 1, 0,19,45.00,60.00,Sunday         
7,104733189.008495
481,100137586.305197
2,1, 1, 1, 0,20, 0.00,15.00,Sunday         
7,99748826.808195
481,89633098.6714645
2,1, 1, 1, 0,20,15.00,30.00,Sunday         
7,101178635.138689
481,90939225.0624094
2,1, 1, 1, 0,20,30.00,45.00,Sunday         
7,102554536.454863
481,92820361.4224292
2,1, 1, 1, 0,20,45.00,60.00,Sunday         
7,103830386.225425
481,95077675.3207115
2,1, 1, 1, 0,21, 0.00,15.00,Sunday         
7,105747362.564148
481,96287970.5638362
2,1, 1, 1, 0,21,15.00,30.00,Sunday         
7,106340554.978092
481,96898496.6823005
2,1, 1, 1, 0,21,30.00,45.00,Sunday         
7,106931056.956136
481,97584308.6130511
2,1, 1, 1, 0,21,45.00,60.00,Sunday         
7,107574994.883107
481,98265636.8947196
2,1, 1, 1, 0,22, 0.00,15.00,Sunday         
7,109087396.517332
481,94216354.9392271
2,1, 1, 1, 0,22,15.00,30.00,Sunday         
7,109914236.642788
481,95641367.0774443
2,1, 1, 1, 0,22,30.00,45.00,Sunday         
7,110655216.629548
481,96499033.0804364
2,1, 1, 1, 0,22,45.00,60.00,Sunday         
7,111351457.869274
481,97240518.1194484
2,1, 1, 1, 0,23, 0.00,15.00,Sunday         
7,108691088.789305
481,86679773.0590568
2,1, 1, 1, 0,23,15.00,30.00,Sunday         
7,109645206.608653
481,87154876.4673931
2,1, 1, 1, 0,23,30.00,45.00,Sunday         
7,110557557.873905
481,89293716.546311
2,1, 1, 1, 0,23,45.00,60.00,Sunday         
7,111446871.88572
481,91242379.9550334
2,1, 1, 1, 0,24, 0.00,15.00,Sunday         
7,106513049.079271
481,87741285.8708095
2,1, 1, 1, 0,24,15.00,30.00,Sunday         
7,106605314.741823
481,88996337.499637
2,1, 1, 1, 0,24,30.00,45.00,Sunday         
7,106685541.398586
481,89458329.5031626
2,1, 1, 1, 0,24,45.00,60.00,Sunday         
7,106758173.172277
481,89786226.4166115
2,2, 1, 2, 0, 1, 0.00,15.00,Monday         
7,109436494.824984
481,79889672.2873921
2,2, 1, 2, 0, 1,15.00,30.00,Monday         
7,118952134.099027
481,77002117.2497618
2,2, 1, 2, 0, 1,30.00,45.00,Monday         
7,119859718.67913
481,79017895.0042775
2,2, 1, 2, 0, 1,45.00,60.00,Monday         
7,120528537.705477
481,78842512.801514
2,2, 1, 2, 0, 2, 0.00,15.00,Monday         
7,92524613.5432064
481,80737491.1946824
2,2, 1, 2, 0, 2,15.00,30.00,Monday         
7,98866143.1264529
481,81439863.6216437
2,2, 1, 2, 0, 2,30.00,45.00,Monday         
7,100185680.241855
481,83743534.5482514
2,2, 1, 2, 0, 2,45.00,60.00,Monday         
7,101713994.313262
481,83882934.9444474
2,2, 1, 2, 0, 3, 0.00,15.00,Monday         
7,101799551.480498
481,86097333.3076333
2,2, 1, 2, 0, 3,15.00,30.00,Monday         
7,102156713.301877
481,85264132.933361
2,2, 1, 2, 0, 3,30.00,45.00,Monday         
7,102442015.280292
481,86745738.3557274
2,2, 1, 2, 0, 3,45.00,60.00,Monday         
7,102667982.422045
481,85626595.8745407
2,2, 1, 2, 0, 4, 0.00,15.00,Monday         
7,103969622.385841
481,87577653.7361422
2,2, 1, 2, 0, 4,15.00,30.00,Monday         
7,105263926.54702
481,87702675.9075645
2,2, 1, 2, 0, 4,30.00,45.00,Monday         
7,106671370.816924
481,90644951.4407593
2,2, 1, 2, 0, 4,45.00,60.00,Monday         
7,108088289.51314
481,90868257.9030844
2,2, 1, 2, 0, 5, 0.00,15.00,Monday         
7,109246738.283037
481,93859303.1494184
2,2, 1, 2, 0, 5,15.00,30.00,Monday         
7,110374912.490262
481,94387501.1375777
2,2, 1, 2, 0, 5,30.00,45.00,Monday         
7,111523062.554768
481,94834111.9284288
2,2, 1, 2, 0, 5,45.00,60.00,Monday         
7,112654802.987281
481,97574594.4364661
2,2, 1, 2, 0, 6, 0.00,15.00,Monday         
7,133132397.630729
481,100056343.741262
2,2, 1, 2, 0, 6,15.00,30.00,Monday         
7,135142457.203609
481,101685991.350372
2,2, 1, 2, 0, 6,30.00,45.00,Monday         
7,135543039.73557
481,104491435.902578
2,2, 1, 2, 0, 6,45.00,60.00,Monday         
7,137238935.099452
481,107563240.938248
2,2, 1, 2, 0, 7, 0.00,15.00,Monday         
7,153307129.983853
481,140837432.129048
2,2, 1, 2, 0, 7,15.00,30.00,Monday         
7,152482569.80985
481,151232864.399154
2,2, 1, 2, 0, 7,30.00,45.00,Monday         
7,151589735.073051
481,151298002.340276
2,2, 1, 2, 0, 7,45.00,60.00,Monday         
7,150923912.045858
481,146387695.033763
2,2, 1, 2, 0, 8, 0.00,15.00,Monday         
7,155441437.760077
481,153569475.338754
2,2, 1, 2, 0, 8,15.00,30.00,Monday         
7,153633581.166674
481,149689424.342806
2,2, 1, 2, 0, 8,30.00,45.00,Monday         
7,151817525.020384
481,145410924.106707
2,2, 1, 2, 0, 8,45.00,60.00,Monday         
7,149802307.09079
481,140424654.632557
2,2, 1, 2, 0, 9, 0.00,15.00,Monday         
7,159649073.921479
481,127110419.7751
2,2, 1, 2, 0, 9,15.00,30.00,Monday         
7,156597942.945816
481,110860079.86003
2,2, 1, 2, 0, 9,30.00,45.00,Monday         
7,154981058.580567
481,104588616.436948
2,2, 1, 2, 0, 9,45.00,60.00,Monday         
7,153323417.060369
481,101167747.558154
2,2, 1, 2, 0,10, 0.00,15.00,Monday         
7,147429003.266081
481,91028071.1676488
2,2, 1, 2, 0,10,15.00,30.00,Monday         
7,145187325.280233
481,86956778.2761686
2,2, 1, 2, 0,10,30.00,45.00,Monday         
7,142365947.18673
481,83681041.2272955
2,2, 1, 2, 0,10,45.00,60.00,Monday         
7,133584138.65416
481,80451716.4954976
2,2, 1, 2, 0,11, 0.00,15.00,Monday         
7,140833363.854715
481,91600954.7410063
2,2, 1, 2, 0,11,15.00,30.00,Monday         
7,140224777.691013
481,91917644.1585945
2,2, 1, 2, 0,11,30.00,45.00,Monday         
7,138694609.298418
481,89904791.7019455
2,2, 1, 2, 0,11,45.00,60.00,Monday         
7,137263131.991732
481,86893771.0525733
2,2, 1, 2, 0,12, 0.00,15.00,Monday         
7,132015669.550912
481,83835831.1311918
2,2, 1, 2, 0,12,15.00,30.00,Monday         
7,131027239.688771
481,81145060.3204813
2,2, 1, 2, 0,12,30.00,45.00,Monday         
7,130712055.348189
481,79514084.500498
2,2, 1, 2, 0,12,45.00,60.00,Monday         
7,130531398.244118
481,78689252.3071345
2,2, 1, 2, 0,13, 0.00,15.00,Monday         
7,125089327.14868
481,79632150.1572505
2,2, 1, 2, 0,13,15.00,30.00,Monday         
7,124613071.140442
481,80702717.6161015
2,2, 1, 2, 0,13,30.00,45.00,Monday         
7,124572945.90774
481,81709281.7108905
2,2, 1, 2, 0,13,45.00,60.00,Monday         
7,124606919.992388
481,83164413.3710554
2,2, 1, 2, 0,14, 0.00,15.00,Monday         
7,121155832.736322
481,77425984.7167061
2,2, 1, 2, 0,14,15.00,30.00,Monday         
7,121527304.413988
481,77102256.4550575
2,2, 1, 2, 0,14,30.00,45.00,Monday         
7,120002442.10164
481,75062747.7245916
2,2, 1, 2, 0,14,45.00,60.00,Monday         
7,118329399.750071
481,71216754.2849594
2,2, 1, 2, 0,15, 0.00,15.00,Monday         
7,120678914.332687
481,62674474.715102
2,2, 1, 2, 0,15,15.00,30.00,Monday         
7,120762757.560225
481,61030216.9732111
2,2, 1, 2, 0,15,30.00,45.00,Monday         
7,122143730.400382
481,61800630.0349111
2,2, 1, 2, 0,15,45.00,60.00,Monday         
7,123942263.821562
481,64723937.816145
2,2, 1, 2, 0,16, 0.00,15.00,Monday         
7,130282560.540886
481,73836251.0560321
2,2, 1, 2, 0,16,15.00,30.00,Monday         
7,132396134.943777
481,77574442.3807019
2,2, 1, 2, 0,16,30.00,45.00,Monday         
7,133220656.96793
481,79847926.8482648
2,2, 1, 2, 0,16,45.00,60.00,Monday         
7,133818731.427551
481,80579385.1810177
2,2, 1, 2, 0,17, 0.00,15.00,Monday         
7,141097157.798095
481,91325443.5982053
2,2, 1, 2, 0,17,15.00,30.00,Monday         
7,141565946.440301
481,90798210.2965906
2,2, 1, 2, 0,17,30.00,45.00,Monday         
7,142980869.645385
481,91900970.9045174
2,2, 1, 2, 0,17,45.00,60.00,Monday         
7,150518353.883925
481,93117675.1019483
2,2, 1, 2, 0,18, 0.00,15.00,Monday         
7,143617257.967678
481,96361447.5374986
2,2, 1, 2, 0,18,15.00,30.00,Monday         
7,143690913.941253
481,98802320.241806
2,2, 1, 2, 0,18,30.00,45.00,Monday         
7,143769868.800846
481,99437759.2656659
2,2, 1, 2, 0,18,45.00,60.00,Monday         
7,143867213.561786
481,99706835.2233046
2,2, 1, 2, 0,19, 0.00,15.00,Monday         
7,137106333.664178
481,103897923.674145
2,2, 1, 2, 0,19,15.00,30.00,Monday         
7,137769520.00547
481,107830438.118673
2,2, 1, 2, 0,19,30.00,45.00,Monday         
7,138667117.283336
481,109732373.081538
2,2, 1, 2, 0,19,45.00,60.00,Monday         
7,139604352.19223
481,111240075.953393
2,2, 1, 2, 0,20, 0.00,15.00,Monday         
7,135014699.17537
481,101019071.314928
2,2, 1, 2, 0,20,15.00,30.00,Monday         
7,136682713.922568
481,102398308.009547
2,2, 1, 2, 0,20,30.00,45.00,Monday         
7,138369826.034632
481,104267479.229679
2,2, 1, 2, 0,20,45.00,60.00,Monday         
7,140066884.12169
481,106242511.301563
2,2, 1, 2, 0,21, 0.00,15.00,Monday         
7,136953202.659489
481,110977144.95939
2,2, 1, 2, 0,21,15.00,30.00,Monday         
7,136586446.859261
481,113575785.008123
2,2, 1, 2, 0,21,30.00,45.00,Monday         
7,136074203.790833
481,113011865.160101
2,2, 1, 2, 0,21,45.00,60.00,Monday         
7,135425852.302891
481,111539956.258619
2,2, 1, 2, 0,22, 0.00,15.00,Monday         
7,135130721.729987
481,106480131.080589
2,2, 1, 2, 0,22,15.00,30.00,Monday         
7,135177082.377415
481,107237263.611766
2,2, 1, 2, 0,22,30.00,45.00,Monday         
7,135164186.885235
481,107127258.212656
2,2, 1, 2, 0,22,45.00,60.00,Monday         
7,135123411.415405
481,106826398.697556
2,2, 1, 2, 0,23, 0.00,15.00,Monday         
7,129928278.821683
481,81147167.2906449
2,2, 1, 2, 0,23,15.00,30.00,Monday         
7,131110027.158995
481,83814046.6107997
2,2, 1, 2, 0,23,30.00,45.00,Monday         
7,132251633.359802
481,89575805.2229882
2,2, 1, 2, 0,23,45.00,60.00,Monday         
7,133369948.979802
481,93378600.8546083
2,2, 1, 2, 0,24, 0.00,15.00,Monday         
7,130830550.44878
481,91536343.6895663
2,2, 1, 2, 0,24,15.00,30.00,Monday         
7,130998286.409351
481,93984275.5926846
2,2, 1, 2, 0,24,30.00,45.00,Monday         
7,131306265.878023
481,95024483.351253
2,2, 1, 2, 0,24,45.00,60.00,Monday         
7,131396829.476256
481,95689518.5972769
2,3, 1, 3, 0, 1, 0.00,15.00,Tuesday        
7,135355824.007815
481,86835872.6928714
2,3, 1, 3, 0, 1,15.00,30.00,Tuesday        
7,136338526.752461
481,85577204.4850312
2,3, 1, 3, 0, 1,30.00,45.00,Tuesday        
7,137151057.610353
481,87707140.509383
2,3, 1, 3, 0, 1,45.00,60.00,Tuesday        
7,138076964.281292
481,89492611.6668375
2,3, 1, 3, 0, 2, 0.00,15.00,Tuesday        
7,109225182.566322
481,91112977.9410126
2,3, 1, 3, 0, 2,15.00,30.00,Tuesday        
7,114674088.478696
481,91520076.4385849
2,3, 1, 3, 0, 2,30.00,45.00,Tuesday        
7,115957683.613621
481,94152070.3005096
2,3, 1, 3, 0, 2,45.00,60.00,Tuesday        
7,116988049.713145
481,94454560.2741093
2,3, 1, 3, 0, 3, 0.00,15.00,Tuesday        
7,117595545.591928
481,95657383.9750959
2,3, 1, 3, 0, 3,15.00,30.00,Tuesday        
7,118454204.393748
481,96110929.994031
2,3, 1, 3, 0, 3,30.00,45.00,Tuesday        
7,119240019.376757
481,98715279.8047783
2,3, 1, 3, 0, 3,45.00,60.00,Tuesday        
7,120258593.475281
481,99101605.2336244
2,3, 1, 3, 0, 4, 0.00,15.00,Tuesday        
7,121021892.780643
481,99379755.8979117
2,3, 1, 3, 0, 4,15.00,30.00,Tuesday        
7,121744608.193325
481,101942506.065937
2,3, 1, 3, 0, 4,30.00,45.00,Tuesday        
7,122458628.346977
481,102237131.356553
2,3, 1, 3, 0, 4,45.00,60.00,Tuesday        
7,123159415.870344
481,102458078.806195
2,3, 1, 3, 0, 5, 0.00,15.00,Tuesday        
7,123233183.516636
481,104481588.428876
2,3, 1, 3, 0, 5,15.00,30.00,Tuesday        
7,123246483.285123
481,103190517.677784
2,3, 1, 3, 0, 5,30.00,45.00,Tuesday        
7,123221509.174021
481,104569736.164894
2,3, 1, 3, 0, 5,45.00,60.00,Tuesday        
7,123162910.496003
481,103192704.090428
2,3, 1, 3, 0, 6, 0.00,15.00,Tuesday        
7,141047675.597876
481,105008462.381231
2,3, 1, 3, 0, 6,15.00,30.00,Tuesday        
7,140341212.940706
481,103840666.218589
2,3, 1, 3, 0, 6,30.00,45.00,Tuesday        
7,137958560.630502
481,103708542.713448
2,3, 1, 3, 0, 6,45.00,60.00,Tuesday        
7,137610339.936767
481,103804801.551098
2,3, 1, 3, 0, 7, 0.00,15.00,Tuesday        
7,153568661.029847
481,135698559.639555
2,3, 1, 3, 0, 7,15.00,30.00,Tuesday        
7,153051403.374395
481,144733689.656486
2,3, 1, 3, 0, 7,30.00,45.00,Tuesday        
7,152105072.849232
481,145204386.09883
2,3, 1, 3, 0, 7,45.00,60.00,Tuesday        
7,151305559.250291
481,140170946.507633
2,3, 1, 3, 0, 8, 0.00,15.00,Tuesday        
7,158710078.76528
481,148752999.778455
2,3, 1, 3, 0, 8,15.00,30.00,Tuesday        
7,158658127.110583
481,146709975.596936
2,3, 1, 3, 0, 8,30.00,45.00,Tuesday        
7,158804292.961829
481,143835140.275462
2,3, 1, 3, 0, 8,45.00,60.00,Tuesday        
7,158882377.251019
481,140468779.865789
2,3, 1, 3, 0, 9, 0.00,15.00,Tuesday        
7,166192265.54236
481,128896640.023461
2,3, 1, 3, 0, 9,15.00,30.00,Tuesday        
7,160564491.317286
481,111956674.9427
2,3, 1, 3, 0, 9,30.00,45.00,Tuesday        
7,156147262.503828
481,103320343.567047
2,3, 1, 3, 0, 9,45.00,60.00,Tuesday        
7,151994989.064082
481,97153920.7803688
2,3, 1, 3, 0,10, 0.00,15.00,Tuesday        
7,146707495.310444
481,85937337.5261957
2,3, 1, 3, 0,10,15.00,30.00,Tuesday        
7,145312741.130263
481,82266455.3757968
2,3, 1, 3, 0,10,30.00,45.00,Tuesday        
7,144845758.49951
481,80804785.2521753
2,3, 1, 3, 0,10,45.00,60.00,Tuesday        
7,144649061.222035
481,80370520.2453282
2,3, 1, 3, 0,11, 0.00,15.00,Tuesday        
7,153565062.47157
481,93266274.6702305
2,3, 1, 3, 0,11,15.00,30.00,Tuesday        
7,153230209.40445
481,94345075.5611178
2,3, 1, 3, 0,11,30.00,45.00,Tuesday        
7,151541663.058785
481,93281603.0976452
2,3, 1, 3, 0,11,45.00,60.00,Tuesday        
7,149631407.956633
481,91180729.4523066
2,3, 1, 3, 0,12, 0.00,15.00,Tuesday        
7,144398487.775256
481,89218818.6415384
2,3, 1, 3, 0,12,15.00,30.00,Tuesday        
7,143238931.004284
481,87700697.5928175
2,3, 1, 3, 0,12,30.00,45.00,Tuesday        
7,141444553.593774
481,86132748.6664921
2,3, 1, 3, 0,12,45.00,60.00,Tuesday        
7,139882388.29384
481,84510789.6853241
2,3, 1, 3, 0,13, 0.00,15.00,Tuesday        
7,129471988.170084
481,83794322.0529332
2,3, 1, 3, 0,13,15.00,30.00,Tuesday        
7,127892525.796282
481,82434874.4536033
2,3, 1, 3, 0,13,30.00,45.00,Tuesday        
7,126686864.98365
481,80528263.8125644
2,3, 1, 3, 0,13,45.00,60.00,Tuesday        
7,125553942.478278
481,78821185.4927592
2,3, 1, 3, 0,14, 0.00,15.00,Tuesday        
7,121497324.497349
481,70824680.6822658
2,3, 1, 3, 0,14,15.00,30.00,Tuesday        
7,121384433.880274
481,69165788.3783234
2,3, 1, 3, 0,14,30.00,45.00,Tuesday        
7,121046707.171527
481,68260141.6190075
2,3, 1, 3, 0,14,45.00,60.00,Tuesday        
7,120593468.316197
481,67240979.6118257
2,3, 1, 3, 0,15, 0.00,15.00,Tuesday        
7,123171823.242972
481,60856862.5062948
2,3, 1, 3, 0,15,15.00,30.00,Tuesday        
7,123372639.954076
481,60506559.7254142
2,3, 1, 3, 0,15,30.00,45.00,Tuesday        
7,123810261.980418
481,60450367.5825789
2,3, 1, 3, 0,15,45.00,60.00,Tuesday        
7,124252681.318563
481,60618337.5427038
2,3, 1, 3, 0,16, 0.00,15.00,Tuesday        
7,130074002.942114
481,66632239.6554556
2,3, 1, 3, 0,16,15.00,30.00,Tuesday        
7,131123044.541329
481,67218115.0340866
2,3, 1, 3, 0,16,30.00,45.00,Tuesday        
7,132967845.517985
481,68416166.136303
2,3, 1, 3, 0,16,45.00,60.00,Tuesday        
7,135183280.203168
481,70416227.9299252
2,3, 1, 3, 0,17, 0.00,15.00,Tuesday        
7,143810379.544716
481,83443517.0427705
2,3, 1, 3, 0,17,15.00,30.00,Tuesday        
7,145932766.330252
481,85609567.6595252
2,3, 1, 3, 0,17,30.00,45.00,Tuesday        
7,148962857.654865
481,89011104.271904
2,3, 1, 3, 0,17,45.00,60.00,Tuesday        
7,149883398.029429
481,91633238.9876308
2,3, 1, 3, 0,18, 0.00,15.00,Tuesday        
7,143349656.728325
481,95658117.1900683
2,3, 1, 3, 0,18,15.00,30.00,Tuesday        
7,143640936.965591
481,98601989.2234352
2,3, 1, 3, 0,18,30.00,45.00,Tuesday        
7,143922532.485826
481,99630619.1419531
2,3, 1, 3, 0,18,45.00,60.00,Tuesday        
7,144189876.144412
481,100197739.951918
2,3, 1, 3, 0,19, 0.00,15.00,Tuesday        
7,136494264.789417
481,103977785.132693
2,3, 1, 3, 0,19,15.00,30.00,Tuesday        
7,136370413.921962
481,106888444.733138
2,3, 1, 3, 0,19,30.00,45.00,Tuesday        
7,136297160.501682
481,107499087.568962
2,3, 1, 3, 0,19,45.00,60.00,Tuesday        
7,136276408.426469
481,107625921.259482
2,3, 1, 3, 0,20, 0.00,15.00,Tuesday        
7,130201014.777088
481,95886135.5667116
2,3, 1, 3, 0,20,15.00,30.00,Tuesday        
7,130406147.013344
481,95649753.2340808
2,3, 1, 3, 0,20,30.00,45.00,Tuesday        
7,130624430.965275
481,95887705.8375425
2,3, 1, 3, 0,20,45.00,60.00,Tuesday        
7,130848563.892826
481,96235736.8828088
2,3, 1, 3, 0,21, 0.00,15.00,Tuesday        
7,127378036.454612
481,100006486.001923
2,3, 1, 3, 0,21,15.00,30.00,Tuesday        
7,126859061.755848
481,102702872.484639
2,3, 1, 3, 0,21,30.00,45.00,Tuesday        
7,126317099.566427
481,102954599.929459
2,3, 1, 3, 0,21,45.00,60.00,Tuesday        
7,125767675.367942
481,102648435.743847
2,3, 1, 3, 0,22, 0.00,15.00,Tuesday        
7,126326840.70354
481,98712890.9569961
2,3, 1, 3, 0,22,15.00,30.00,Tuesday        
7,127216849.697803
481,100466387.652924
2,3, 1, 3, 0,22,30.00,45.00,Tuesday        
7,128036842.376479
481,101297461.514962
2,3, 1, 3, 0,22,45.00,60.00,Tuesday        
7,128823231.34187
481,101926027.926626
2,3, 1, 3, 0,23, 0.00,15.00,Tuesday        
7,122547399.363511
481,75747461.0317625
2,3, 1, 3, 0,23,15.00,30.00,Tuesday        
7,122771197.45315
481,76302637.7957247
2,3, 1, 3, 0,23,30.00,45.00,Tuesday        
7,122950280.746733
481,80416828.9810163
2,3, 1, 3, 0,23,45.00,60.00,Tuesday        
7,123106914.343078
481,82827269.5188674
2,3, 1, 3, 0,24, 0.00,15.00,Tuesday        
7,120613610.787892
481,80285549.1524976
2,3, 1, 3, 0,24,15.00,30.00,Tuesday        
7,120919782.308826
481,82635439.558112
2,3, 1, 3, 0,24,30.00,45.00,Tuesday        
7,121125798.779964
481,83716634.1231047
2,3, 1, 3, 0,24,45.00,60.00,Tuesday        
7,121311061.697205
481,84453385.6480574
2,4, 1, 4, 0, 1, 0.00,15.00,Wednesday      
7,122187442.353554
481,74509501.424039
2,4, 1, 4, 0, 1,15.00,30.00,Wednesday      
7,121357701.48492
481,71280602.4653693
2,4, 1, 4, 0, 1,30.00,45.00,Wednesday      
7,120460665.596256
481,71151370.0566993
2,4, 1, 4, 0, 1,45.00,60.00,Wednesday      
7,119532011.778263
481,70966015.8268863
2,4, 1, 4, 0, 2, 0.00,15.00,Wednesday      
7,92021963.0287127
481,72011404.727043
2,4, 1, 4, 0, 2,15.00,30.00,Wednesday      
7,98682940.2252582
481,73181473.8949876
2,4, 1, 4, 0, 2,30.00,45.00,Wednesday      
7,100606544.499372
481,76041593.7161973
2,4, 1, 4, 0, 2,45.00,60.00,Wednesday      
7,102680089.088833
481,76769157.9269994
2,4, 1, 4, 0, 3, 0.00,15.00,Wednesday      
7,102262875.309745
481,79260645.5123866
2,4, 1, 4, 0, 3,15.00,30.00,Wednesday      
7,102207535.214672
481,78275441.6285776
2,4, 1, 4, 0, 3,30.00,45.00,Wednesday      
7,102091913.775972
481,79703039.6178127
2,4, 1, 4, 0, 3,45.00,60.00,Wednesday      
7,101910075.372975
481,78578329.8783024
2,4, 1, 4, 0, 4, 0.00,15.00,Wednesday      
7,103162643.66006
481,80676814.2986635
2,4, 1, 4, 0, 4,15.00,30.00,Wednesday      
7,104503370.928742
481,80911108.4544106
2,4, 1, 4, 0, 4,30.00,45.00,Wednesday      
7,105769555.110147
481,83783882.8410765
2,4, 1, 4, 0, 4,45.00,60.00,Wednesday      
7,107042177.17898
481,83974489.7905072
2,4, 1, 4, 0, 5, 0.00,15.00,Wednesday      
7,105395099.796806
481,85322881.9840482
2,4, 1, 4, 0, 5,15.00,30.00,Wednesday      
7,103652596.821704
481,82468634.6897617
2,4, 1, 4, 0, 5,30.00,45.00,Wednesday      
7,101868737.040185
481,81709192.1809758
2,4, 1, 4, 0, 5,45.00,60.00,Wednesday      
7,100032885.571565
481,78781772.9244993
2,4, 1, 4, 0, 6, 0.00,15.00,Wednesday      
7,120615368.018117
481,80511837.3281396
2,4, 1, 4, 0, 6,15.00,30.00,Wednesday      
7,121478130.472645
481,80691461.1068221
2,4, 1, 4, 0, 6,30.00,45.00,Wednesday      
7,120756865.574379
481,82218997.4623061
2,4, 1, 4, 0, 6,45.00,60.00,Wednesday      
7,121349352.1862
481,84033331.7711984
2,4, 1, 4, 0, 7, 0.00,15.00,Wednesday      
7,139321793.180223
481,119082773.861611
2,4, 1, 4, 0, 7,15.00,30.00,Wednesday      
7,140484595.524933
481,129952484.522602
2,4, 1, 4, 0, 7,30.00,45.00,Wednesday      
7,140868301.78676
481,132631767.825019
2,4, 1, 4, 0, 7,45.00,60.00,Wednesday      
7,141560045.022063
481,129698803.6605
2,4, 1, 4, 0, 8, 0.00,15.00,Wednesday      
7,144355515.521962
481,136111352.957251
2,4, 1, 4, 0, 8,15.00,30.00,Wednesday      
7,141808249.963078
481,132575081.187132
2,4, 1, 4, 0, 8,30.00,45.00,Wednesday      
7,139415115.324715
481,129207691.387708
2,4, 1, 4, 0, 8,45.00,60.00,Wednesday      
7,137066479.435708
481,125144793.384487
2,4, 1, 4, 0, 9, 0.00,15.00,Wednesday      
7,139462310.912902
481,112664798.508756
2,4, 1, 4, 0, 9,15.00,30.00,Wednesday      
7,136655925.858526
481,97396215.4780073
2,4, 1, 4, 0, 9,30.00,45.00,Wednesday      
7,133328197.844378
481,90286483.6322103
2,4, 1, 4, 0, 9,45.00,60.00,Wednesday      
7,129922355.726362
481,84378753.542234
2,4, 1, 4, 0,10, 0.00,15.00,Wednesday      
7,123244169.635092
481,71551915.7414277
2,4, 1, 4, 0,10,15.00,30.00,Wednesday      
7,120366213.811799
481,65077154.8425002
2,4, 1, 4, 0,10,30.00,45.00,Wednesday      
7,118214919.391415
481,60992811.5279579
2,4, 1, 4, 0,10,45.00,60.00,Wednesday      
7,116350730.676999
481,58465542.8502117
2,4, 1, 4, 0,11, 0.00,15.00,Wednesday      
7,123936547.090933
481,70657121.7459053
2,4, 1, 4, 0,11,15.00,30.00,Wednesday      
7,123882624.175362
481,72257037.3043679
2,4, 1, 4, 0,11,30.00,45.00,Wednesday      
7,123642891.804753
481,72823336.3276894
2,4, 1, 4, 0,11,45.00,60.00,Wednesday      
7,123365431.93186
481,73139813.1087507
2,4, 1, 4, 0,12, 0.00,15.00,Wednesday      
7,118724469.812508
481,73114026.2822409
2,4, 1, 4, 0,12,15.00,30.00,Wednesday      
7,118078486.428462
481,72911654.6612713
2,4, 1, 4, 0,12,30.00,45.00,Wednesday      
7,117332772.504247
481,72387198.7318709
2,4, 1, 4, 0,12,45.00,60.00,Wednesday      
7,116615388.69161
481,71572607.058802
2,4, 1, 4, 0,13, 0.00,15.00,Wednesday      
7,110753553.495584
481,71930359.7337893
2,4, 1, 4, 0,13,15.00,30.00,Wednesday      
7,109822596.563267